87
 Ord_Energy   -325.9326291
O       2.56390460      -2.8519922      2.99785548
H       1.66523309      -3.0544117      2.67928815
H       2.55809746      -2.9854314      3.94156068
O       1.94165525      0.86805992      -2.1245777
H       1.25599222      1.48158018      -1.8338408
H       2.80230502      1.24440115      -1.9004738
O       -3.1436924      -1.2139757      -0.7696225
H       -2.4465489      -1.1340011      -0.0949413
H       -3.9798753      -1.1628799      -0.3145328
O       3.92070952      -4.4747141      1.08965385
H       3.52775379      -3.9460166      1.79359912
H       4.72126399      -4.0157543      0.80813647
O       -0.3365729      -5.0926520      -0.2285273
H       -0.8372919      -4.5274592      -0.8425516
H       -0.8543249      -5.8861731      -0.1123640
O       6.15639054      -3.1714979      -0.1204952
H       5.86647621      -2.2760503      -0.3588312
H       7.08659561      -3.1114206      0.08307572
O       -1.0195795      -0.9737842      0.92390058
H       -0.8865251      -0.0947537      1.29948364
H       -0.2850382      -1.1228879      0.30509603
O       -1.7692701      -3.4679565      -1.8839175
H       -2.3518325      -2.7938869      -1.5156994
H       -1.3792118      -3.0685889      -2.6719152
O       -0.3962644      -1.9874537      -3.8693967
H       0.39975444      -2.4038811      -3.5037273
H       -0.1483399      -1.6270256      -4.7280688
O       4.94884338      -4.5733150      -2.3534315
H       4.15351227      -4.9942513      -2.0062488
H       5.43776916      -4.2576350      -1.5828367
O       1.46380448      3.75438266      -4.5013452
H       0.80399501      3.04490509      -4.5918764
H       1.25000615      4.40660309      -5.1642070
O       0.09421408      -3.3469142      2.00549420
H       -0.0323157      -3.9745779      1.28350629
H       -0.3928611      -2.5508639      1.75822451
O       -0.4677123      1.66859514      1.65107103
H       -0.8192639      2.26040141      2.31037510
H       0.50414879      1.73996859      1.69702899
O       3.09665777      -0.7955982      1.17959005
H       2.39692354      -1.0207209      0.54713173
H       3.01889558      -1.4316446      1.90068807
O       -0.3389777      2.19530050      -1.1352005
H       -0.4638596      2.01857781      -0.1953447
H       -0.8449270      1.53570107      -1.6298069
O       5.03729664      -0.7328486      -0.7892170
H       4.40110385      -0.7660370      -0.0594664
H       5.03720499      0.18005569      -1.1081252
O       2.20460935      1.83190938      1.62206769
H       2.62920797      0.97123782      1.50803786
H       2.69921420      2.47532729      1.10241089
O       3.46938250      3.80477490      -0.0337262
H       3.81568876      4.62694182      0.30264618
H       2.73484249      4.03167243      -0.6331553
O       4.55780599      1.83580670      -1.6910085
H       4.33315542      2.57726093      -1.1149714
H       4.50661074      2.13888192      -2.6109787
O       4.31478854      -2.0337882      -3.1958666
H       4.62058713      -2.9454067      -3.0767899
H       4.56229774      -1.5533865      -2.3944386
O       1.14830209      -1.2916365      -0.6912007
H       1.38775126      -0.5048883      -1.2034720
H       1.31245908      -2.0461040      -1.2689762
O       1.79147649      -3.1040599      -2.6636535
H       1.98602388      -3.9102157      -2.1661887
H       2.64043288      -2.7076532      -2.8982741
O       0.64447072      -0.5865698      -6.1015630
H       1.48976254      -0.4576974      -5.6346374
H       0.85650281      -0.8142609      -7.0026592
O       1.40828650      4.25594883      -1.7144665
H       1.47864804      4.18599389      -2.6744614
H       0.66616195      3.68584298      -1.4690024
O       -0.3613788      1.73877891      -4.7889825
H       -0.0953875      0.99983276      -5.3501831
H       -0.9155257      1.35619183      -4.0991345
O       2.83183373      -0.1513646      -4.5568742
H       2.40849674      0.22072645      -3.7675095
H       3.44223836      -0.8322241      -4.2419885
O       -1.5933537      0.23574640      -2.6541083
H       -1.1146954      -0.5143048      -3.0364964
H       -2.2743014      -0.1536925      -2.0933300
O       4.00257134      2.43807213      -4.3137506
H       3.75544414      1.55054786      -4.6036374
H       3.19629556      2.96243376      -4.4005204
O       2.39275340      -5.2323211      -1.0470432
H       2.90756586      -5.0037758      -0.2560384
H       1.47664399      -5.3227820      -0.7583900