90
 Ord_Energy   -337.9343253
O       -3.4964067      0.09706159      0.47881494
H       -3.0617235      -0.7685135      0.45027427
H       -3.3612451      0.44349497      1.37042011
O       -1.2449757      1.52691050      -0.3312032
H       -0.6462912      0.92920520      0.13676916
H       -2.1258775      1.15775433      -0.1908798
O       -2.1311535      -2.3521879      0.15419970
H       -1.3849120      -1.9988484      -0.3562674
H       -2.7070091      -2.7838517      -0.4885701
O       -2.5297555      1.03384686      2.94854415
H       -2.3236656      0.41994047      3.66664766
H       -2.2075533      1.90313847      3.21886777
O       -4.0422788      -0.3662965      -2.2534861
H       -4.0336836      -0.1119990      -1.3222131
H       -3.9559395      -1.3273283      -2.2641749
O       -0.0608778      -1.4537571      -1.4038615
H       0.34500870      -2.2743807      -1.7185421
H       0.64600970      -0.8429013      -1.1612265
O       -0.1593271      0.00885982      1.70969575
H       -0.9177346      0.46009777      2.10437563
H       -0.2846835      -0.9271479      1.90737837
O       -3.6245947      -3.2093943      -2.0626674
H       -2.8851351      -3.3913623      -2.6706357
H       -4.2883757      -3.8720957      -2.2328060
O       -0.7325104      2.56475922      -2.8208086
H       -0.8797366      2.17314364      -1.9458664
H       -1.4302870      2.20869601      -3.3822141
O       -2.7664492      1.11023848      -4.1326993
H       -3.2677874      0.61500125      -3.4596693
H       -3.3785065      1.31572599      -4.8343066
O       -0.2156021      3.70623325      1.04990639
H       -0.6842128      2.99506144      0.58844840
H       -0.5153852      3.69032890      1.96597865
O       -0.7598734      -0.8871673      -4.0696851
H       -1.4251986      -0.2007898      -4.1901863
H       -0.6185328      -0.9799537      -3.1154324
O       1.97321434      0.39326195      -0.8867868
H       2.00276493      0.82566654      -1.7509417
H       2.10101580      1.09462082      -0.2372669
O       -1.0953980      3.34256560      3.72154048
H       -1.2780301      4.02755480      4.35944658
H       -0.4934823      2.70844442      4.15190382
O       -1.5125502      -3.5707431      -3.7086314
H       -0.6814341      -3.8653939      -3.3115622
H       -1.3224937      -2.6894873      -4.0575677
O       0.34140958      4.84325830      -1.5010679
H       -0.1322162      4.20610822      -2.0528212
H       0.07733051      4.65802985      -0.5904797
O       0.97092882      -3.8543789      -2.4423499
H       1.22716582      -4.1864411      -1.5672779
H       1.78271293      -3.5465555      -2.8637885
O       -1.4565001      -0.8495641      4.75068228
H       -1.2775996      -1.5049258      4.05476823
H       -1.7810161      -1.3337319      5.50580279
O       2.38171130      2.70038642      0.69076676
H       1.51600072      3.09260056      0.87477412
H       2.75091860      3.19534248      -0.0502365
O       1.94685683      -4.2673532      0.03564533
H       2.50224801      -3.4874436      -0.1054691
H       1.73287511      -4.2668538      0.97330983
O       -0.9124604      -2.5199047      2.63800987
H       -0.1188819      -3.0720491      2.66222924
H       -1.3818328      -2.6615819      1.80387837
O       2.26988549      0.78496673      2.72157979
H       1.42692062      0.48060838      2.34633339
H       2.54499205      1.51975625      2.15947045
O       1.95535833      1.94324484      -3.2048142
H       1.01208585      2.16459277      -3.1819557
H       2.42607877      2.69136933      -2.8189312
O       0.44304625      1.38251961      4.79018117
H       -0.0723837      0.57110175      4.86371540
H       1.19867670      1.18128827      4.22126256
O       3.46529171      -1.9295536      -0.5648605
H       3.60949785      -2.2089429      -1.4776055
H       3.00057414      -1.0829350      -0.6310891
O       2.00948565      -0.5764573      -4.4334198
H       2.12272332      0.33964649      -4.1505439
H       1.05417474      -0.7218206      -4.4616734
O       3.37373666      -2.6230137      -3.3275557
H       2.92936956      -1.8690976      -3.7567661
H       4.02299201      -2.9468620      -3.9460377
O       2.95421553      4.14250650      -1.7001890
H       3.52724314      4.87335644      -1.9154188
H       2.04675413      4.49648101      -1.6579291
O       1.51963841      -3.8250843      2.83139426
H       2.16540519      -3.1067437      2.69531046
H       1.90990021      -4.4311966      3.45534220
O       3.24222863      -1.8270251      2.27657017
H       3.04353105      -0.9076933      2.49534521
H       3.49737214      -1.8430708      1.34548385