45
 Ord_Energy   -152.8630520
O       -5.1262950      -5.5765986      5.29947901
H       -5.5127844      -5.3389887      4.44652128
H       -5.8692774      -5.7094197      5.89971447
O       -3.5168502      0.80095500      7.16077852
H       -2.9245383      1.54278409      7.07667923
H       -3.1489155      0.22382745      7.85562277
O       -8.6894102      -1.5684886      4.70906401
H       -8.2174024      -1.4046033      5.54465628
H       -9.3919792      -0.9259163      4.65846539
O       -8.5468177      -4.4092087      4.84719944
H       -8.7294864      -3.4628975      4.79910135
H       -7.9230027      -4.5903883      4.13197184
O       -7.4433808      -5.5077877      7.06227589
H       -7.9580111      -6.2599010      7.34243011
H       -7.9129548      -5.1130223      6.30539513
O       -1.6559798      -3.2479748      8.21255302
H       -2.3693878      -3.4219901      7.57640266
H       -0.9298336      -3.8090283      7.95426989
O       -2.7147796      -0.8627543      9.11896801
H       -3.4945290      -1.1446553      9.61089134
H       -2.2456498      -1.6713721      8.86672783
O       -4.7423033      -1.0928626      5.48472834
H       -4.2386765      -0.3979054      5.92763567
H       -5.5951123      -1.1291099      5.94001770
O       -5.2532291      -1.6304249      10.2200098
H       -5.4746146      -1.9287242      11.0987387
H       -5.5364623      -2.3302259      9.60910225
O       -5.9867558      -3.4401676      8.25315666
H       -6.5290851      -4.1907243      7.97914743
H       -5.1730461      -3.4827315      7.72919178
O       -3.8036515      -3.5212800      6.51618147
H       -4.1648469      -4.2696805      6.01801109
H       -4.0332179      -2.7051980      6.05255890
O       -7.1750941      -1.2575563      6.93816519
H       -6.9179434      -0.5064413      7.49387693
H       -6.8828911      -2.0561368      7.39630413
O       -6.0276937      0.59917641      8.56804371
H       -5.2066445      0.82712001      8.11380959
H       -5.7804799      -0.0305409      9.25779629
O       -6.4356308      -4.6623082      2.95488119
H       -6.3660545      -4.9081053      2.03664374
H       -6.2990884      -3.6988065      2.99973154
O       -6.2439880      -1.9765584      3.26235294
H       -7.1083836      -1.7409577      3.62285995
H       -5.5939555      -1.6198582      3.88152885