87
 Ord_Energy   -325.1480805
O       -2.7422893      1.93386655      1.50529068
H       -2.2043015      2.26461203      2.23622029
H       -2.6074609      0.97352072      1.49695125
O       -0.6384787      2.45957683      -0.2483163
H       -1.4674664      2.42206005      0.24453664
H       -0.0879259      1.75650661      0.12416079
O       -2.2677260      -0.7987592      1.24126430
H       -1.6670126      -0.7266538      0.48139123
H       -3.0959254      -1.1596046      0.90298985
O       -4.2755922      1.21595231      -0.8079098
H       -3.9063044      1.59618170      -0.0019600
H       -4.4349160      0.28255253      -0.6208123
O       -0.5316609      -0.7892390      -0.8840879
H       0.32474618      -0.3757125      -1.0583570
H       -0.4031323      -1.7482546      -0.9090450
O       0.73981890      0.86743599      1.54248927
H       0.29090186      1.48831164      2.13113692
H       0.49608046      -0.0153475      1.84589543
O       -4.5374396      -1.5907542      -0.1641841
H       -5.3502681      -2.0598953      0.00255252
H       -4.0144529      -2.1414304      -0.7745725
O       -0.6971966      2.52722891      3.36817769
H       -0.3923371      1.89519233      4.03301642
H       -0.0649517      3.25794352      3.35476203
O       -0.7851869      2.81887029      -2.9701394
H       -0.7133808      2.64881599      -2.0181944
H       -1.6827584      2.56420137      -3.2121952
O       -3.3810570      1.75502864      -3.3089616
H       -4.1179173      2.02763432      -3.8492897
H       -3.7294359      1.61387899      -2.4101574
O       1.38334838      4.28479376      0.27161533
H       0.61032273      3.72041295      0.12083438
H       1.45387990      4.39931816      1.22612190
O       -2.0149983      -0.7323133      -3.2343100
H       -2.5128644      0.08192787      -3.3655591
H       -1.5263985      -0.6305991      -2.4024073
O       1.84148408      0.40350731      -1.5976204
H       2.37527132      1.09737055      -1.1927002
H       1.66359358      0.68451694      -2.5051033
O       1.48300311      4.31406784      3.13034049
H       2.01756073      3.56404981      3.44848422
H       1.73304950      5.07142383      3.65361104
O       -2.9287952      -2.9896242      -1.8313416
H       -2.6952585      -2.3109673      -2.4805918
H       -2.0927531      -3.3470713      -1.5075281
O       1.17958081      4.84564052      -2.5355738
H       0.40707812      4.30748698      -2.7546621
H       1.23275982      4.86983828      -1.5717568
O       -0.2501624      -3.5342480      -0.9395310
H       0.25445147      -3.6306281      -0.1222031
H       0.35962591      -3.6191522      -1.6864954
O       0.48933976      0.40937594      4.84853595
H       0.39082794      0.04078974      5.72312452
H       0.28014000      -0.3038973      4.22266717
O       3.39145601      2.56882427      -0.7066538
H       2.76414022      3.20776669      -0.3388366
H       3.54755238      2.83271992      -1.6214362
O       -0.1696742      -1.4374252      2.88526315
H       -1.0139956      -1.3093061      2.42696709
H       0.25788353      -2.2089248      2.49268180
O       3.48966381      0.88612561      1.56020864
H       3.75161959      1.45084565      0.82339791
H       2.51897747      0.86410986      1.52637579
O       1.33932975      1.43506148      -4.1277899
H       0.55330676      1.91831053      -3.8301311
H       2.07980842      2.05116369      -4.0706327
O       2.75252364      2.07537642      3.99118413
H       3.18443454      1.64547770      3.23935633
H       2.11531595      1.44064622      4.33754472
O       3.27334835      -2.0094374      -1.6068242
H       2.83858803      -1.1465097      -1.6564437
H       2.75504605      -2.5886086      -2.1757397
O       0.45059692      -1.2502297      -4.4618863
H       -0.4632619      -1.1078897      -4.1792416
H       0.84230220      -0.3711546      -4.5259705
O       1.39594257      -3.4591269      -3.2083312
H       1.08252993      -2.6738360      -3.6928484
H       1.60220513      -4.1188550      -3.8651473
O       3.29524765      3.40761809      -3.4435547
H       3.89952440      3.92108722      -3.9731204
H       2.57402031      4.00646969      -3.1763635
O       1.16142311      -3.5207258      1.54677755
H       1.46622148      -4.3260063      1.95707252
H       1.95004195      -2.9613185      1.41014452
O       3.27158907      -1.9434537      1.12648870
H       3.38488290      -2.0279604      0.16622493
H       3.49375856      -1.0324154      1.34493362