39
 Ord_Energy   -130.1240690
O       3.24416757      10.8609018      -6.4973568
H       2.85737348      10.0182924      -6.2281613
H       2.97432828      11.0117302      -7.4143075
O       1.77774894      15.1204205      -7.9434027
H       2.07751274      15.2115440      -7.0297689
H       1.07854533      14.4533377      -7.9323430
O       1.69809222      8.64611053      -5.6756887
H       0.98795050      9.19319916      -5.2941737
H       1.83249998      7.91381884      -5.0799894
O       -1.6148773      10.6494017      -7.3724532
H       -2.5129413      10.4290600      -7.6029453
H       -1.0559424      9.91028214      -7.6765952
O       4.72142553      13.2905436      -6.5724086
H       4.40884304      12.3815651      -6.4727878
H       4.61584234      13.5063152      -7.5077223
O       1.76120245      9.20022964      -10.187449
H       1.96833444      9.17185020      -11.117712
H       2.02333069      10.0825186      -9.8789110
O       -0.2495003      10.3667278      -4.8453607
H       0.23818894      11.1984816      -4.7682118
H       -0.8469798      10.4791956      -5.5951290
O       2.95318961      14.9474335      -5.3265423
H       3.36280251      15.5605364      -4.7226061
H       3.66721082      14.4042149      -5.7072176
O       2.34593725      11.6524124      -9.0501298
H       1.54112184      12.0251474      -8.6609897
H       2.93255186      12.3932257      -9.2457513
O       0.19192895      12.7748957      -7.6680712
H       0.56794280      12.7462521      -6.7758045
H       -0.5333506      12.1378183      -7.6684346
O       3.88859439      13.9932394      -9.2303972
H       3.14244890      14.4849491      -8.8409185
H       4.26061249      14.5468426      -9.9111738
O       0.07879747      8.66538334      -8.0545663
H       0.62812954      8.74756145      -8.8469514
H       0.68241537      8.51487255      -7.3181018
O       1.45301950      12.5720034      -5.1791176
H       2.12518764      11.9833994      -5.5549984
H       1.87847579      13.4277906      -5.0511093