66
 Ord_Energy   -238.1168813
O       -8.6638869      -0.0195615      -0.5212693
H       -7.7244883      -0.2185683      -0.6217771
H       -8.7127781      0.87281020      -0.1579561
O       -4.2961755      -2.3170597      3.78751283
H       -3.4728161      -2.7352054      4.02539274
H       -4.8048839      -2.2206532      4.61259619
O       -5.8520246      -0.5123344      -0.6676565
H       -5.6808915      -1.2229768      -0.0244060
H       -5.3946533      -0.7556413      -1.4684050
O       -10.902674      -3.0100852      4.86601001
H       -11.072487      -2.4143594      4.11283210
H       -11.733479      -3.1205738      5.32009735
O       -8.5213189      -1.7165682      5.71740642
H       -9.3481631      -2.1929095      5.58758550
H       -8.2372368      -1.4389894      4.83250853
O       -9.7819781      0.99064280      2.93553968
H       -9.4325777      1.44296841      2.15585414
H       -9.4523671      1.48849238      3.69624834
O       -5.7167052      -1.8530903      6.08057267
H       -5.5778935      -1.0222630      6.55060198
H       -6.6750761      -1.9711584      6.05310204
O       -5.7361635      3.98640083      2.81840606
H       -5.5696667      3.35452014      2.10735064
H       -5.5894461      3.50754593      3.64555452
O       -7.8164543      -0.9398731      3.17167484
H       -7.9337511      -1.7096524      2.60072409
H       -8.5341622      -0.3166178      2.99936138
O       -5.7313203      2.21759881      5.03982067
H       -5.6066278      1.84358883      5.91963110
H       -5.5410262      1.49532335      4.42115875
O       -5.7236805      1.75485800      1.01364258
H       -5.6733773      1.11625413      0.29240765
H       -5.5239817      1.23702577      1.80882598
O       -8.4128899      0.76902089      7.02905888
H       -8.5659723      -0.0945441      6.62001972
H       -8.6429776      1.43358582      6.36854213
O       -8.5143163      2.59514374      4.82547859
H       -7.5594671      2.45389125      4.90755410
H       -8.6135985      3.36252504      4.24905439
O       -5.3543807      0.19956126      3.23739672
H       -6.2456731      -0.1855857      3.20685820
H       -4.7615171      -0.5436656      3.39002265
O       -8.4520371      2.40540955      0.93591869
H       -7.5059694      2.19758847      0.96607885
H       -8.5559929      3.23186435      1.42273408
O       -11.268130      -1.3621403      2.76258724
H       -11.031977      -1.6420231      1.87012825
H       -10.907009      -0.4705574      2.86189555
O       -5.7310037      0.71266318      7.43293755
H       -5.4952405      0.88374987      8.34078070
H       -6.7042499      0.74639925      7.38574203
O       -10.272133      -2.0685929      0.17963540
H       -9.7348620      -1.3069649      -0.1054384
H       -10.778258      -2.3472869      -0.5787208
O       -8.1479550      -3.2269107      1.60561873
H       -8.4821410      -3.8617828      2.25535091
H       -8.8907245      -2.9536153      1.05299144
O       -8.3799291      4.58725420      2.77110460
H       -8.5539749      5.52326125      2.72323270
H       -7.4108520      4.48046679      2.78279923
O       -9.1733205      -4.8247016      3.60293951
H       -8.7333832      -5.3429418      4.27343748
H       -9.8106342      -4.2667111      4.07325161
O       -5.4945589      -2.5391940      1.11875166
H       -5.0823138      -2.5312963      1.98916683
H       -6.3795483      -2.9123571      1.24115161