54
 Ord_Energy   -190.1175540
O       -1.1651918      13.1787052      3.56988287
H       -0.2908855      12.8653555      3.78587556
H       -1.4512760      13.7472229      4.30674553
O       -3.6222043      11.6195221      3.60051465
H       -4.0074300      11.8465052      2.74126291
H       -2.7477903      12.0218468      3.61163902
O       -2.2020247      14.8093300      5.49282169
H       -2.7652149      14.4678946      6.20545101
H       -2.0965881      15.7622423      5.60205269
O       -4.9395647      17.7662354      5.91999197
H       -3.9808785      17.7753639      5.81845808
H       -5.2983446      17.8433342      5.02466345
O       -2.1209244      17.6082382      5.36872721
H       -2.0885329      17.6040936      4.39518499
H       -1.4769631      18.2475700      5.66222191
O       -6.5211744      14.4115963      0.35921267
H       -6.9378352      14.7811394      1.15710604
H       -7.2279458      14.2049198      -0.2468972
O       -5.6904549      17.5079670      3.24214458
H       -5.1609091      16.7030544      3.36269474
H       -5.2778668      17.9952793      2.51976943
O       -4.2969298      16.1202316      -0.0868223
H       -3.5830147      15.6226015      0.33102015
H       -5.0855722      15.5669823      -0.0142052
O       -2.5620262      14.7398043      1.68555343
H       -1.9195276      14.1878967      2.14834046
H       -3.3045370      14.8479013      2.30651450
O       -2.0781197      17.4641209      2.65073276
H       -2.0673842      16.5759525      2.27739358
H       -2.7267391      17.9573383      2.13235974
O       -7.5796213      15.4805136      2.61939597
H       -7.1081514      16.3012161      2.81424260
H       -7.4570260      14.9148502      3.39353442
O       -6.6940589      14.0268059      4.86563969
H       -6.3521132      13.1623955      5.12815094
H       -6.6338300      14.5975189      5.64437437
O       -4.0486950      13.8154154      7.21065760
H       -4.4402217      13.0361519      6.79541206
H       -4.7680664      14.4520226      7.30904341
O       -4.4623551      12.5868530      1.13731015
H       -3.7236814      13.2032337      1.08860338
H       -5.2362003      13.1028852      0.87947023
O       -4.3739042      15.0998955      3.69377279
H       -5.1594805      14.6341181      4.00540781
H       -3.6978728      15.0094976      4.37672138
O       -6.1963057      15.6812744      7.09832382
H       -6.7776417      16.0080051      7.77961731
H       -5.7503995      16.4576397      6.71487331
O       -5.2966241      11.7369490      5.69628239
H       -5.5505108      10.8525362      5.94459581
H       -4.6823835      11.6516190      4.94380808
O       -4.1941847      18.5515461      1.08483613
H       -4.2571215      19.2660046      0.45740125
H       -4.2691516      17.7220135      0.57805180