42
 Ord_Energy   -141.6644900
O       -1.7127661      0.86783224      -1.6166721
H       -2.4930167      1.40755200      -1.4395117
H       -2.0252454      0.10524962      -2.1232373
O       -4.7005891      1.11956215      -8.1137266
H       -5.3170690      0.38717756      -7.9519615
H       -4.9775424      1.53942788      -8.9247503
O       -3.9404087      -2.6484475      -7.2919039
H       -3.2566199      -2.0032215      -7.5279393
H       -4.7774448      -2.2334265      -7.5249934
O       -1.5023958      0.69978505      -5.4248738
H       -2.2932007      1.24798369      -5.5405449
H       -0.9064969      1.20679617      -4.8604641
O       -4.9382958      0.73227668      -3.4818997
H       -4.8041029      1.36570406      -2.7668008
H       -4.1863203      0.12079162      -3.4454948
O       -4.0366530      -3.1531267      -4.6439695
H       -3.9420714      -3.0393359      -5.6074295
H       -4.0004196      -4.0897479      -4.4710722
O       -3.8734254      2.16917443      -5.6355338
H       -4.3689570      1.68419147      -4.9595232
H       -4.2202868      1.90634191      -6.4962487
O       -2.2858538      -0.5068141      -7.8571906
H       -2.9991297      0.11158929      -8.0537662
H       -1.8387129      -0.1489993      -7.0788660
O       -2.7195565      -0.9495882      -3.5207333
H       -3.0791592      -1.7774479      -3.8622906
H       -2.2402789      -0.5159380      -4.2417130
O       -0.2313696      2.25395322      -3.4375462
H       -0.6708217      1.75771689      -2.7234950
H       0.65388680      2.44260883      -3.1389267
O       -6.3559436      -1.0267102      -7.5409765
H       -7.1909947      -1.3568793      -7.8612771
H       -6.3778982      -1.1060229      -6.5695948
O       -4.0049543      2.61848235      -1.6076803
H       -3.5478694      3.13136578      -2.2985911
H       -4.3428425      3.24636626      -0.9752246
O       -2.6553716      3.78555107      -3.6679928
H       -1.7617783      3.42084742      -3.6445827
H       -3.0768001      3.40834308      -4.4524331
O       -6.2445397      -1.3221620      -4.8613333
H       -5.5965910      -2.0153434      -4.6831316
H       -5.9711742      -0.5618311      -4.3308701