18
 Ord_Energy   -46.0059509
O       24.4287109      2.45863390      27.9995155
H       24.8032398      2.91834927      27.2275238
H       25.0145378      2.64672399      28.7274017
O       25.1637154      3.81513929      25.7450829
H       25.5066490      3.33399391      24.9786892
H       24.3041763      4.15334892      25.4712639
O       23.1140404      2.94925261      22.6747360
H       22.7862606      3.42904544      23.4509048
H       22.6318111      3.29676962      21.9282398
O       22.3700771      4.31989431      25.0072021
H       21.9585552      5.15490341      25.2147865
H       22.1240864      3.70625687      25.7213306
O       25.7491798      2.41018820      23.3959332
H       24.8505535      2.54367304      23.0533905
H       25.9617004      1.49730396      23.2167549
O       21.8555546      2.61548090      27.0730381
H       22.7315865      2.51218104      27.4827538
H       21.4007092      1.78896439      27.2119961