30
 Ord_Energy   -93.3539886
O       4.22895479      -0.1205630      7.40193272
H       4.88774300      0.27762288      6.81132603
H       4.51455355      -1.0195343      7.54488707
O       7.60380840      5.97184467      4.99664354
H       7.92941761      5.18148804      4.53047323
H       8.07302666      6.71840143      4.63455105
O       8.31069851      3.57472038      3.87347507
H       8.57294464      3.03259301      4.62845182
H       7.47260237      3.20625210      3.56590223
O       5.63628340      2.65383506      3.41972423
H       5.31839705      3.46593595      3.85553026
H       5.09897804      2.52753806      2.64283776
O       3.17998433      2.06917334      8.76194191
H       2.23514032      1.98703206      8.86451340
H       3.47625780      1.24157631      8.34863281
O       6.05640078      1.28065360      5.83609724
H       6.98878860      1.45210385      6.02362013
H       5.87805033      1.62745368      4.95172977
O       8.67241287      2.17428660      6.34817791
H       9.44134998      1.85382092      6.81101990
H       8.38208103      2.98348475      6.80809212
O       7.66146898      4.44907188      7.42005491
H       7.67910814      5.10682201      6.71358299
H       6.72819376      4.23115444      7.55490398
O       5.01927567      3.51791906      7.28607416
H       5.36145735      2.74880695      6.81066418
H       4.34181261      3.17625451      7.88419485
O       4.96797991      4.87116909      4.82947159
H       5.76993990      5.40684319      4.87451363
H       4.83179188      4.52490234      5.72291327