42
 Ord_Energy   -142.4657750
O       0.10058913      4.96707439      -4.0578632
H       0.50764239      5.82824039      -4.0218915
H       -0.7498287      5.07468176      -4.5212330
O       -2.3510429      0.11272089      -4.2021794
H       -1.4054125      0.31089205      -4.2416582
H       -2.7740123      0.52168381      -4.9710755
O       -0.4478225      2.94188404      -2.2138063
H       -1.4006068      2.78682494      -2.2737031
H       -0.2421054      3.71434736      -2.7551360
O       0.62739474      2.75820446      -5.8475403
H       0.64871746      1.98162091      -5.2729148
H       0.61945432      3.52279878      -5.2587094
O       -2.2316272      5.04319143      -5.4235649
H       -3.0159308      4.67134762      -5.0011830
H       -2.0664866      4.50012016      -6.2054867
O       -3.5397446      1.65042806      -6.1342968
H       -2.8856301      2.11158562      -6.6754698
H       -3.9645347      2.33147311      -5.5998816
O       -4.3940811      3.65738630      -4.2130026
H       -4.0066490      3.14601731      -3.4831914
H       -5.2799086      3.88951945      -3.9458012
O       0.74433953      -1.0219228      -1.7135636
H       1.47126758      -1.5078615      -1.3339612
H       0.52704209      -0.3059415      -1.0894093
O       -2.0913736      -1.4666488      -1.9040602
H       -2.2942190      -1.0862302      -2.7705614
H       -1.1280713      -1.5030057      -1.8556290
O       -2.9073786      0.40244529      -0.1120036
H       -3.4661419      0.04403187      0.57189524
H       -2.6763236      -0.3371880      -0.7041529
O       -1.5300829      3.16288614      -7.4445266
H       -1.2735043      3.22085452      -8.3607187
H       -0.7229271      2.96049333      -6.9383702
O       -3.1180522      2.05607271      -2.3780334
H       -2.8921322      1.36608970      -3.0220427
H       -3.1793177      1.61530924      -1.5219210
O       -0.1008620      1.05438471      -0.1569953
H       -1.0312203      0.88285136      0.03435204
H       -0.0951494      1.82280397      -0.7444097
O       0.34776986      0.80340803      -3.8446071
H       0.62307143      0.09278663      -3.2533676
H       0.13182277      1.55495143      -3.2717905