30
 Ord_Energy   -92.7775726
O       5.28559875      5.82429314      8.24184322
H       4.47152710      5.84620285      7.70910072
H       5.09734964      6.29472494      9.04957676
O       7.39185905      6.24534416      6.35277367
H       6.68001223      6.21146202      7.00426102
H       8.02943039      5.57266998      6.62612867
O       8.32005692      3.09790373      4.41573668
H       7.77191305      3.83411574      4.11664343
H       8.63495636      3.34636831      5.29431820
O       6.44853020      3.22162557      8.01675034
H       5.91428900      2.69171333      7.41211510
H       5.97580719      4.05336857      8.14803886
O       6.63683081      5.33967543      3.90240192
H       6.89145422      5.74298096      4.75164604
H       6.73778963      6.01505232      3.23696923
O       4.22031641      4.13324976      4.80185032
H       5.02701473      4.50037479      4.41914558
H       4.46073055      3.28347588      5.19120169
O       6.93514872      0.76331031      4.50244951
H       7.48391771      1.56353557      4.42426300
H       7.26687098      0.15002424      3.85335255
O       3.10360718      5.78292561      6.63832331
H       2.27236748      6.12523746      6.32352400
H       3.43824506      5.19533920      5.93754959
O       4.96742773      1.71009636      6.10585308
H       5.64734030      1.31112397      5.53498983
H       4.34801435      1.01730180      6.32029533
O       8.88728142      3.92764068      7.07500410
H       9.57520962      3.70822668      7.69680786
H       8.04969978      3.60525966      7.45582676