81
 Ord_Energy   -300.5709761
O       0.68850329      3.18635548      4.21063078
H       -0.1570026      2.99167372      4.63519621
H       1.32976086      2.57655081      4.59476794
O       0.03499655      -2.0119312      1.92869067
H       0.66155129      -1.2944137      1.77065495
H       0.52802443      -2.8268228      2.08317025
O       -0.0988436      2.87092184      -0.9275990
H       -0.0904997      2.70236733      0.02371322
H       -0.9605454      2.57929581      -1.2500301
O       2.98085148      -0.9721939      3.70228308
H       2.57647968      -0.5232827      2.94227056
H       3.45242631      -1.7285605      3.33462964
O       1.73844640      0.11866014      1.54040484
H       1.94503219      -0.0162757      0.60574045
H       1.12646495      0.86485261      1.60669280
O       -0.0849500      2.15578148      1.78174348
H       -0.9226266      1.75396571      2.04572719
H       0.24661194      2.64395079      2.54903489
O       -1.6674473      -1.3484579      3.97442791
H       -1.1614393      -0.9494335      4.69215154
H       -1.0299004      -1.5919938      3.28398460
O       1.72473553      1.83967262      -2.6180999
H       1.11339953      2.27240110      -1.9927316
H       2.21736967      2.53304097      -3.0472569
O       3.97438523      -3.2474204      2.34278957
H       4.83053801      -3.6654146      2.37981767
H       3.78338795      -3.0844177      1.39979254
O       -3.1526137      0.29059824      0.25843262
H       -2.8167373      -0.6053883      0.12509436
H       -2.9549741      0.77882760      -0.5494773
O       -2.6635488      -4.7510128      1.13535801
H       -3.4588045      -5.2756601      1.09758277
H       -2.5150154      -4.5396995      2.07434427
O       2.36752324      1.13967668      5.37443088
H       3.05855022      1.31892709      6.00818927
H       2.69559568      0.42693342      4.80275811
O       -2.4696965      1.01563963      2.77173905
H       -2.2951003      0.15183328      3.17182510
H       -2.8310985      0.84080929      1.88923800
O       1.40114682      -4.4002012      2.49159663
H       2.32107422      -4.1135046      2.53708493
H       1.10079338      -4.6145735      3.38468909
O       0.32142336      -4.7453115      5.03577595
H       0.45706743      -5.3302163      5.77610070
H       0.64460617      -3.8662163      5.30611284
O       -0.0158923      -2.0071331      -1.9688704
H       0.44165383      -2.8565504      -1.9950916
H       -0.7456270      -2.0995121      -1.3403439
O       2.14683444      -0.4619187      -1.1138149
H       1.36823727      -0.9713513      -1.3831613
H       2.15193365      0.33810757      -1.6536531
O       -1.9250584      -2.2522413      0.03316613
H       -1.2248797      -2.1162910      0.69105950
H       -2.3342073      -3.0918611      0.27155741
O       1.41333151      -4.4177732      -1.7046110
H       1.60058568      -5.0965108      -2.3473423
H       0.87614185      -4.8321240      -1.0048841
O       -1.8723206      2.24947492      5.14746767
H       -2.1712046      1.89921667      4.29040921
H       -2.6092924      2.72811907      5.51812902
O       -2.1688330      -4.1019499      3.73356133
H       -2.1851247      -3.1494700      3.89834526
H       -1.3937177      -4.4278732      4.20493404
O       -2.4323405      1.70789792      -2.0927997
H       -1.8268306      1.17265589      -2.6354216
H       -3.0497625      2.11599682      -2.6942466
O       3.31664968      -2.8533582      -0.2389178
H       2.74764743      -3.4637769      -0.7230597
H       3.08619271      -1.9736037      -0.5649368
O       -0.2091319      0.09752038      5.94414730
H       -0.8398793      0.81973356      5.82790743
H       0.66271903      0.48885637      5.79639148
O       -0.5607840      0.29769172      -3.4778388
H       0.25561252      0.79707649      -3.3544433
H       -0.4073608      -0.5696794      -3.0784897
O       1.27642704      -2.2887292      5.59538865
H       1.86011798      -1.8977059      4.93296268
H       0.71476825      -1.5687250      5.90601653
O       -0.0070781      -5.4491761      0.33156383
H       -0.9309751      -5.2827811      0.55095485
H       0.50633766      -5.1878665      1.10910739