54
 Ord_Energy   -190.2762150
O       -1.0190690      0.29810080      2.91761303
H       -1.1573320      -0.4163719      2.27937436
H       -0.8645473      1.09156191      2.38231778
O       -3.0790128      4.75282383      4.99242067
H       -3.4077384      5.11203194      4.15903044
H       -2.1186130      4.84582043      4.95980501
O       -1.9111793      -0.1981273      -1.7503489
H       -1.8182739      -0.7327001      -2.5348482
H       -2.8675410      -0.1022830      -1.5865448
O       -0.8770288      5.24068737      2.02271962
H       -1.8283603      5.38442135      2.13255978
H       -0.5179835      5.13834095      2.91374755
O       -3.6864697      5.35045481      2.28758669
H       -3.9722974      5.68191242      1.42861366
H       -3.7702715      4.38499546      2.23558426
O       -3.5140240      2.19779778      5.83003998
H       -3.8781056      2.22217035      6.71118498
H       -3.4420714      3.12237263      5.53311634
O       -4.6483521      -1.0206686      1.51285493
H       -5.2533116      -1.7117308      1.77331996
H       -4.4163470      -0.5387106      2.32290363
O       -0.2189782      4.63888788      4.68482304
H       0.46385348      4.94230175      5.27733660
H       -0.3063935      3.67945004      4.82765198
O       -4.1403470      5.85753298      -0.4899183
H       -3.1844263      5.76873064      -0.6563319
H       -4.4407014      6.60217905      -1.0040506
O       -3.6539454      2.62001896      1.92449963
H       -3.8391439      1.90444565      2.54125357
H       -2.7050325      2.57370090      1.73683870
O       -0.9292570      2.54914403      1.34335852
H       -1.0663392      2.51229644      0.38684499
H       -0.7775476      3.47317076      1.58146298
O       -4.4177541      3.01765656      -0.6844992
H       -4.2602434      2.82698202      0.25376317
H       -4.5048036      3.97583055      -0.7444104
O       -1.6916971      2.57957363      -1.3199843
H       -1.6080075      1.65229273      -1.5758458
H       -2.6398978      2.73778009      -1.2035737
O       -0.7093733      2.00335741      5.14124537
H       -1.6080454      1.97307253      5.49038172
H       -0.6660541      1.31936717      4.46034098
O       -1.4714626      5.39147520      -0.7802015
H       -1.0688064      5.43218136      0.09662721
H       -1.3579506      4.48542786      -1.0942754
O       -4.5095672      0.21140160      -1.0784984
H       -4.6705598      -0.1486979      -0.1972920
H       -4.6651668      1.16334438      -1.0269217
O       -1.8279626      -1.3890373      0.89354753
H       -1.7128509      -1.0274202      0.00675089
H       -2.7807965      -1.4089897      1.04232812
O       -3.7017672      0.44029048      3.66084719
H       -2.7576494      0.33213079      3.46387053
H       -3.7587907      0.95899665      4.47325373