57
 Ord_Energy   -202.9156800
O       0.98173958      4.68395042      7.39201403
H       0.84040010      5.31041956      8.09761524
H       1.12060404      5.20232391      6.58179617
O       3.05339718      0.86452949      1.65219903
H       3.48784494      1.55290496      1.13475728
H       2.10490251      1.00458753      1.55670524
O       6.49352837      1.71070039      4.30807400
H       7.23438263      1.16228139      4.54798412
H       5.72688007      1.11774540      4.18946505
O       4.29257488      0.24301825      4.03712749
H       3.63950896      0.15109599      4.73788452
H       3.81880021      0.40793249      3.20744491
O       3.23259711      6.82002401      3.10765195
H       2.99070978      6.21876478      2.38859653
H       2.53324056      6.72772694      3.76632524
O       4.85537481      3.61528349      5.54091549
H       5.12667370      4.45220470      5.14216518
H       5.47271681      2.94460630      5.21888733
O       2.40480709      0.21199851      6.21410561
H       2.35090518      -0.4685702      6.87924147
H       2.61180401      1.04420912      6.67723560
O       0.19842452      1.22668290      1.77111506
H       0.30825892      1.22754872      2.73889351
H       -0.3794389      0.49719986      1.56138825
O       -0.2020286      4.03449488      1.60282433
H       0.69217426      4.34983730      1.41330373
H       -0.1496262      3.07156897      1.56735241
O       2.52132607      4.65362453      1.47321808
H       3.13391566      4.16717052      0.90947694
H       2.54055190      4.20302677      2.33354664
O       4.43330622      2.98655224      0.28827709
H       5.09406900      3.21941018      0.96571034
H       4.90150023      2.91290069      -0.5386586
O       2.96247387      2.60909843      7.33346558
H       2.28807449      3.29238439      7.42353201
H       3.69115734      3.01046324      6.83955526
O       2.48867869      3.53382564      3.99722195
H       3.30483556      3.41512799      4.49733019
H       1.92688084      2.76264572      4.13699770
O       1.24950552      5.82924128      4.90111685
H       0.36272678      5.79070950      4.51889563
H       1.70615649      5.02978373      4.59097052
O       -0.9130849      3.21685719      5.78162003
H       -0.3703756      3.66023064      6.44459820
H       -1.1449098      3.89245796      5.13090611
O       0.64378482      1.42335153      4.44058037
H       1.15902555      0.89497536      5.06206226
H       0.03488839      1.98222256      4.94780159
O       6.16444206      3.64723301      2.26133418
H       6.01513290      4.44603300      2.78054547
H       6.35845327      2.94819117      2.89887261
O       -1.2558009      5.23399448      3.77781701
H       -2.0275170      5.73017454      3.51971722
H       -0.9185310      4.80265236      2.97131896
O       5.60068655      5.86005497      4.01678133
H       4.77289629      6.25332880      3.68920970
H       6.20505953      6.58199739      4.16735458