66
 Ord_Energy   -238.1172789
O       -2.1849399      2.50231721      6.70754734
H       -1.8058361      1.63579910      6.92567194
H       -3.1380293      2.41506535      6.82956001
O       -1.8792286      -1.4102310      3.43584799
H       -1.1215599      -0.9589782      3.82844472
H       -2.4293981      -0.7188058      3.04638283
O       -4.9321425      0.05652233      5.04470457
H       -4.7125338      -0.8786749      5.13121799
H       -4.4994063      0.35936444      4.23646411
O       0.44617253      -0.0273612      9.59007646
H       1.08316243      0.66992097      9.38405445
H       -0.2771550      0.38668073      10.0803112
O       -4.8986930      1.83526574      7.08865058
H       -4.9488086      1.17860988      6.37093377
H       -5.7138316      2.32930168      7.06411401
O       -0.7871373      -4.0271596      3.60164134
H       -0.0312565      -3.7567874      4.14097366
H       -1.1941889      -3.2008975      3.30999365
O       1.93761822      2.16502489      8.65857057
H       2.58712372      2.75986865      9.02408188
H       1.08544619      2.63726453      8.67566120
O       -3.3972853      0.85556849      2.77325253
H       -2.6764607      1.35272913      3.20164377
H       -3.6101307      1.31458110      1.96550826
O       -0.5371120      3.25003552      8.85163383
H       -1.1074438      3.19120820      8.07356623
H       -0.9828055      2.74003719      9.53969723
O       0.40021099      -0.2868388      4.76565634
H       0.56770141      -1.2308961      4.90934556
H       1.15244768      0.16744091      5.18047773
O       -3.7302380      -2.5260160      5.24108937
H       -3.4945997      -3.4571089      5.32798261
H       -3.0742037      -2.1443201      4.63932350
O       -0.9585087      -3.6799111      7.47371017
H       -1.4187470      -4.3201004      6.91753098
H       -1.6310154      -3.0306196      7.72372874
O       -2.4513399      -5.0794526      5.47777498
H       -1.8650451      -4.8076355      4.74873240
H       -2.7081896      -5.9809736      5.30421633
O       -1.3284819      2.00071840      4.08579168
H       -1.6053397      2.31480706      4.95845829
H       -0.6149366      1.37262028      4.23771764
O       1.23450177      -2.6515438      9.01571255
H       0.47169271      -3.1128656      8.64665377
H       0.91893732      -1.7956643      9.33845321
O       -0.9949105      0.05669518      7.18908372
H       -0.4670623      -0.0993000      6.39790508
H       -0.4129297      0.01596904      7.95864770
O       2.41558468      0.59383152      6.31853174
H       2.75073497      -0.2489218      6.65167433
H       2.30050304      1.17219117      7.08161624
O       -3.8412332      0.41930451      9.32867470
H       -3.6600581      -0.4423054      8.92924247
H       -4.2724670      0.93849923      8.63930693
O       -2.9449418      -1.7431467      7.80265042
H       -3.3543625      -2.0073796      6.96821624
H       -2.2927903      -1.0608631      7.57343191
O       3.09094572      -2.0674676      7.14642675
H       2.49170194      -2.2962260      7.88052618
H       3.92993609      -2.4789307      7.33534051
O       0.92069382      -2.8851353      5.52678549
H       0.28633080      -3.1271101      6.21730374
H       1.75943474      -2.7091269      5.97006395
O       -1.7170188      1.38641037      10.6918196
H       -2.5025318      1.05093193      10.2235627
H       -1.9786191      1.52344833      11.5983886