33
 Ord_Energy   -104.2111430
O       -3.0771379      3.55316591      10.4240437
H       -2.5597991      4.08384037      11.0440073
H       -3.8896772      4.04872131      10.2603254
O       -7.1929426      6.33569431      13.6344013
H       -6.3353138      6.69443941      13.3784866
H       -7.6531992      6.16414690      12.8033085
O       -6.2193083      2.53246641      11.9448776
H       -5.9779133      3.31713486      11.4291668
H       -5.4590249      1.94000065      11.9110670
O       -8.3073272      5.60715151      11.0599766
H       -8.6296215      4.71721077      11.2844877
H       -8.9975624      6.03060961      10.5561171
O       -3.1004009      2.98497128      14.0800591
H       -3.2731640      2.28612924      13.4366188
H       -3.9667737      3.29641628      14.3738089
O       -8.9229593      3.03735065      11.7656202
H       -8.0158605      2.69939661      11.8439817
H       -9.4444217      2.54840040      12.3973837
O       -5.7311811      4.03825712      14.2912331
H       -5.9782166      3.44649386      13.5672922
H       -6.3860678      4.75066090      14.2854853
O       -4.3997397      6.10346508      12.8400164
H       -4.7519693      5.39372301      13.3975706
H       -3.4552786      5.92287683      12.7620764
O       -5.5817785      4.91984034      10.6200075
H       -6.4935083      5.23217010      10.5770941
H       -5.1587381      5.42631435      11.3304844
O       -1.8441019      4.91841507      12.6223383
H       -0.9551674      5.09896374      12.9149580
H       -2.2019379      4.23051691      13.2127342
O       -3.7019133      1.30258715      11.8212624
H       -3.4248011      2.04024053      11.2474089
H       -3.3051028      0.51167649      11.4671316