48
 Ord_Energy   -167.1797180
O       -3.2275703      2.22386622      1.19644916
H       -2.3495285      2.63252449      1.18343925
H       -3.6301271      2.41726017      0.34052679
O       -3.7674367      2.49078155      -1.5378603
H       -3.4391448      1.59087908      -1.6841670
H       -4.1175556      2.78879714      -2.3859636
O       -0.0865675      1.24040365      -2.3504493
H       -0.3966482      2.12159944      -2.0928652
H       -0.0328755      1.24688387      -3.3136477
O       -2.6984677      1.63554478      3.91671681
H       -2.5149529      0.68869120      3.87454915
H       -3.1013333      1.86816776      3.06953073
O       0.63552332      0.25582600      3.13915229
H       0.49762499      1.15582144      3.46005726
H       0.74297893      0.32665440      2.18125105
O       0.26316625      0.59350276      0.35109711
H       -0.5956453      0.16509107      0.48161149
H       0.36966455      0.70422655      -0.6020318
O       -1.5774111      3.96131110      -4.3387713
H       -2.5319416      3.81847119      -4.3694362
H       -1.3589937      4.08175611      -3.4050948
O       -3.1110284      0.62702316      -4.6483120
H       -2.2070238      0.82176441      -4.9263835
H       -3.0349817      0.20409869      -3.7826812
O       -1.7344857      -1.0456609      3.49142122
H       -0.8411528      -0.6622493      3.42781973
H       -1.6675980      -1.8127747      4.05325603
O       -2.3327188      -0.4038980      0.81812519
H       -2.2180664      -0.8030605      1.68903017
H       -2.7252419      0.46871734      0.97069025
O       -0.4494172      1.60796511      -5.1210551
H       0.09379941      1.68689907      -5.9003834
H       -0.7952794      2.49789882      -4.9254474
O       -1.2188122      3.68070650      -1.5437339
H       -0.9171056      3.73959708      -0.6285541
H       -2.1307709      3.35597014      -1.5106703
O       -0.5665758      3.15438557      1.12726784
H       -0.3844073      3.24864721      2.07007265
H       -0.1921602      2.30037045      0.86405832
O       -0.2716246      2.87865067      3.91172981
H       -1.1593295      2.48945785      4.00972080
H       -0.1208098      3.42213559      4.68015337
O       -2.5696764      -0.0168201      -1.9442467
H       -2.5752184      -0.3799374      -1.0497276
H       -1.6768254      0.32754397      -2.0940656
O       -4.3017091      3.04476237      -4.2490735
H       -3.9591355      2.15820670      -4.4647746
H       -5.0632352      3.19008088      -4.8037152