63
 Ord_Energy   -227.7853550
O       0.26597825      -3.5063099      -4.0872874
H       1.16227019      -3.1478102      -4.0102305
H       -0.0471128      -3.6150572      -3.1834216
O       2.76027822      -5.3039727      1.03443098
H       2.39976668      -6.1877460      0.89869213
H       3.60539484      -5.2852344      0.56214720
O       -0.3995506      -3.9425394      -1.3062655
H       -1.2591934      -3.7237279      -0.9539579
H       0.25536004      -3.5595047      -0.7007471
O       1.50793576      -3.0072109      0.46850708
H       1.95525539      -3.8414931      0.70479590
H       1.41134775      -2.5103745      1.27696657
O       3.48619986      -8.9568758      -1.3429731
H       4.38968134      -8.6070709      -1.3398443
H       3.27835417      -9.1811981      -2.2559800
O       0.71461391      -6.4687666      -1.8937683
H       0.25789958      -5.6566991      -1.6448204
H       0.95451415      -6.9413433      -1.0855553
O       5.96491957      -7.7370348      -1.3689469
H       5.71293831      -6.8872685      -0.9811648
H       6.40183592      -7.5131216      -2.1982705
O       6.97295332      -6.7975678      -3.8885419
H       6.86351538      -5.8299894      -3.8443293
H       7.83123732      -6.9591159      -4.2703309
O       4.33863592      -7.1227502      -4.7440638
H       3.95181298      -7.9884290      -4.5625581
H       5.27086401      -7.1390843      -4.4922800
O       4.77591228      -3.0647568      -5.8052091
H       4.27376175      -3.8359863      -6.1284432
H       5.00480127      -2.5440368      -6.5697593
O       2.93932486      -2.8751151      -3.6988270
H       3.54549050      -2.7788226      -4.4423236
H       3.04140282      -3.7864232      -3.3791365
O       0.54646617      -5.4338955      -5.9837703
H       -0.1204280      -5.2998518      -6.6525616
H       0.40226185      -4.7481675      -5.3080272
O       2.85569119      -9.3994903      -4.1063079
H       2.04853868      -8.8658018      -4.2288527
H       2.69544911      -10.243085      -4.5197105
O       6.09014988      -2.7470791      -1.3529597
H       6.69551563      -2.1524436      -0.9185491
H       5.20381165      -2.3502733      -1.2782688
O       1.71121752      -7.8465566      0.31800863
H       1.37777078      -8.5204753      0.90326905
H       2.37922740      -8.2755289      -0.2503746
O       6.54300022      -4.1263136      -3.8235306
H       6.40934134      -3.6128122      -3.0181069
H       5.98653412      -3.7292375      -4.5044093
O       3.19355536      -5.4634032      -2.7892668
H       2.35113430      -5.8405823      -2.5070920
H       3.57031918      -6.0470066      -3.4606556
O       3.34717107      -5.2333240      -6.5124259
H       2.39106703      -5.2843718      -6.3976202
H       3.71743393      -5.9614272      -5.9928131
O       3.54676461      -1.8186271      -1.2238688
H       2.87162399      -2.1789822      -0.6397968
H       3.27650237      -2.0587003      -2.1231620
O       4.94901800      -5.2279706      -0.6536253
H       5.44534540      -4.4129414      -0.7874592
H       4.35045671      -5.3125805      -1.4128764
O       0.72926277      -7.7638788      -4.3508768
H       0.60502756      -7.3656039      -3.4776897
H       0.66222787      -7.0368828      -4.9810633