60
 Ord_Energy   -215.2148590
O       2.19756413      2.30645657      2.12398648
H       1.30374396      2.67852998      2.14887738
H       2.77602649      2.98882961      2.48710012
O       -0.4466422      3.18157983      -0.5534123
H       -0.2947905      4.09050608      -0.8412928
H       0.40500289      2.72651124      -0.6352745
O       -0.3711202      3.40200686      2.21183610
H       -0.7762230      2.65618086      2.67454791
H       -0.5523933      3.32637596      1.26568747
O       -0.3448096      2.19895148      6.16216040
H       -0.7999174      1.92929876      5.35409737
H       -0.2166236      3.15416622      6.11619949
O       2.97632003      4.44283104      -1.2166616
H       2.13466644      4.88871813      -1.3711792
H       2.76599479      3.50445747      -1.1224906
O       4.16477871      5.80204582      0.81390911
H       3.81304598      5.27708006      0.07270240
H       4.95197010      6.23447180      0.49392250
O       -1.1227523      1.15836358      3.63779879
H       -1.6712085      0.58719516      3.08564949
H       -0.2458016      0.74778640      3.66580105
O       0.56681997      4.92840958      6.15334225
H       1.46272981      4.54431629      6.13453388
H       0.51850319      5.47743940      6.93166018
O       2.99093223      3.72968745      5.88431597
H       3.32716727      3.93724680      5.00251436
H       2.86334229      2.77451253      5.92706394
O       0.38118458      -1.5354399      1.63772929
H       -0.5565148      -1.3465211      1.76359665
H       0.84359151      -1.1028920      2.36837602
O       3.40574169      4.54636431      3.20606375
H       2.53101349      4.95308876      3.30422902
H       3.81790257      4.97632933      2.44633842
O       1.49123096      0.10678408      3.62084031
H       1.85748398      0.81914186      3.07536340
H       1.79046202      0.27301636      4.52292490
O       0.40954336      5.76687193      -1.2107754
H       0.09091626      6.45845699      -1.7844951
H       0.72304511      6.20045519      -0.3967525
O       0.96581173      -0.7167640      -0.8782852
H       0.82609701      -1.0611288      0.02226273
H       1.20147121      -1.4618637      -1.4244456
O       -1.5726072      0.60349822      -0.5647309
H       -0.7675149      0.13500731      -0.8184931
H       -1.3624223      1.54356337      -0.6356142
O       1.48347354      6.85378027      1.03128028
H       2.42572093      6.64860678      1.00056386
H       1.17456794      6.55655336      1.89760959
O       2.09537220      1.00540781      6.21120834
H       1.20502126      1.39716053      6.27762365
H       2.25407863      0.54142195      7.02924109
O       2.02927136      1.86724663      -0.5975578
H       1.77290356      0.95206767      -0.7648922
H       2.20549679      1.94485366      0.35220790
O       -2.3285503      -0.5384685      1.77467108
H       -3.1601059      -0.9933697      1.67372715
H       -2.1399738      -0.1033323      0.92353326
O       0.79286689      5.56255627      3.42352605
H       0.29644686      4.84693289      2.99636626
H       0.62278843      5.48711681      4.36984348