45
 Ord_Energy   -154.0373540
O       6.24046326      6.71437311      2.93600297
H       5.87434530      6.00714207      3.48370934
H       5.50348902      7.06400394      2.41978717
O       2.10339642      8.48008728      5.33647203
H       1.46882999      8.19259548      6.00425005
H       2.29665422      7.69907713      4.79677677
O       7.61652374      8.35368252      4.57359791
H       7.15440893      7.78405619      3.93110538
H       8.54981518      8.25756645      4.40390348
O       3.60159802      3.52222037      6.76944637
H       3.68420696      2.63550091      7.10871363
H       3.96272898      4.12014818      7.45023489
O       4.97593737      5.12333441      4.89733219
H       4.57098818      4.42676830      5.42818785
H       5.36760807      5.74765682      5.52620935
O       5.90104914      10.4930248      5.05282784
H       6.38935518      11.3111572      5.10712433
H       6.54619169      9.79189205      4.86757517
O       6.13760853      6.97338057      6.63428688
H       5.47242165      7.65766954      6.80380154
H       6.80014467      7.38543415      6.07038641
O       4.66947746      5.32064676      8.46951675
H       4.04095936      6.00401878      8.74763870
H       5.37326956      5.79227877      8.00986576
O       2.70331192      6.25151873      3.77102518
H       2.98454738      6.67231750      2.95049834
H       3.49809742      5.85241556      4.15602493
O       4.30895901      9.04920387      6.92573261
H       3.53353119      8.85338020      6.37841177
H       4.83234644      9.68825531      6.42920303
O       0.59249270      7.16412830      7.31142712
H       0.79175943      6.32748270      6.85354328
H       -0.3171546      7.11491013      7.59204102
O       1.30594885      4.96513796      5.88482761
H       1.62064695      5.30352306      5.03667641
H       2.01384592      4.40224409      6.22314835
O       3.61429691      9.88701439      3.41094637
H       2.97226596      9.57811928      4.06484175
H       4.38585329      10.1776505      3.91095161
O       3.90643907      7.78944635      1.71321821
H       3.66217303      8.02204227      0.82169169
H       3.81178021      8.59540844      2.25225616
O       2.96674418      7.46742582      8.90879726
H       2.11334324      7.37236500      8.46825314
H       3.44100213      8.14757824      8.41457653