60
 Ord_Energy   -215.0481720
O       3.37244129      6.21412182      -1.9714590
H       3.77365732      5.32783937      -1.8984311
H       3.96180439      6.73771954      -2.5073504
O       0.71547311      5.19359732      -2.3916409
H       1.52110076      5.72337103      -2.4021501
H       1.03452408      4.28916740      -2.2519550
O       2.78140044      1.40468299      1.47798157
H       3.69640923      1.57519138      1.23111141
H       2.31606627      2.24094701      1.31132603
O       -0.8575531      1.28137565      3.18734050
H       0.02978039      1.42181528      3.56808352
H       -1.3525357      0.77304721      3.82371712
O       1.44720340      3.71066689      0.78439051
H       0.60113984      3.81294346      1.23683536
H       1.91991973      4.55029535      0.83501106
O       0.51545912      5.75734949      3.61818314
H       -0.0950409      5.13657093      3.19611835
H       0.57991916      6.51191330      3.02206111
O       -0.7060446      6.52846098      -0.3229042
H       -1.4675942      5.97142982      -0.1290960
H       -0.2229529      6.08858633      -1.0348243
O       0.73524809      7.75528336      1.58372259
H       0.53159070      8.68596840      1.60108960
H       0.17172188      7.35441017      0.89584100
O       2.87864828      6.14552116      0.79825586
H       2.22523785      6.79917145      1.07761335
H       3.05625701      6.28331852      -0.1407698
O       4.46426964      4.55556297      2.45111561
H       3.90081120      4.43629360      3.22474790
H       4.01438093      5.20964670      1.89819419
O       1.66784394      1.72501779      4.02064848
H       1.98583508      2.59351587      4.29573584
H       2.18059921      1.49322033      3.23382449
O       4.29056025      3.68795705      -1.6487740
H       3.47142220      3.19412398      -1.7969675
H       4.69194365      3.30768704      -0.8586755
O       1.69572771      2.68763852      -1.7511856
H       1.04820716      1.98761630      -1.8856332
H       1.57725930      3.00405574      -0.8399620
O       5.27841663      2.57130718      0.80318159
H       6.18514395      2.34071922      0.98632413
H       5.03859043      3.28075528      1.42772734
O       -0.4991869      0.94475800      -1.7828774
H       -0.6935973      0.13877340      -2.2534019
H       -0.2756561      0.68930370      -0.8693417
O       -0.9706580      3.88764191      2.17779613
H       -1.6751089      4.06059361      1.54070640
H       -1.0718175      2.98899269      2.51715970
O       0.27687359      0.32939210      0.72888523
H       1.20491374      0.52528661      0.91580754
H       -0.2066885      0.56945622      1.52763426
O       2.60214186      4.34273338      4.61017990
H       2.79451346      4.66163969      5.48832464
H       1.86327767      4.88149118      4.27493477
O       -2.7679498      4.57433939      0.15492050
H       -3.7046573      4.70993280      0.04249962
H       -2.4440267      4.15152979      -0.6610736
O       -1.6762920      3.53241420      -2.0795779
H       -0.9651144      4.11068392      -2.3785002
H       -1.3087985      2.64111853      -2.0171744