36
 Ord_Energy   -120.1459050
O       0.29644665      0.49606279      -0.1741358
H       -0.5948170      0.48294005      0.20592293
H       0.73055023      1.27782261      0.18814290
O       -0.4119721      0.68577814      4.71785879
H       -0.6438284      1.00781643      5.58450031
H       -0.7333794      1.34441280      4.07597876
O       -1.0583734      -1.4475656      2.99190712
H       -0.2046764      -1.5251630      2.54007983
H       -0.9173526      -0.8404532      3.72836351
O       -2.1983101      0.26058468      1.08323812
H       -1.8882921      -0.3373738      1.77987456
H       -2.6769530      -0.2895911      0.45153588
O       -0.5490593      -1.7125170      -1.7304204
H       -0.1425507      -0.9041338      -1.3903174
H       -0.1045218      -2.4437339      -1.2834101
O       -3.0946219      -1.6833231      -0.7513586
H       -3.7610657      -1.7860370      -1.4250328
H       -2.2312705      -1.7018034      -1.2023522
O       1.31020129      -1.5168055      1.49347126
H       1.03775012      -0.8281267      0.86860347
H       1.21371996      -2.3555021      1.02643859
O       2.04096603      0.61005229      3.21311831
H       1.32063401      0.59347141      3.85573554
H       1.97727668      -0.2179048      2.71831179
O       1.38558340      2.55388236      1.41553640
H       2.03751135      3.24627852      1.35141206
H       1.71517038      1.91500103      2.07304311
O       0.47097552      -3.7640612      0.01244455
H       0.71734738      -4.6757817      -0.1163987
H       -0.4005555      -3.7653343      0.44781128
O       -1.9592157      -3.4562563      1.21191514
H       -1.7916814      -2.8783786      1.96848118
H       -2.4929201      -2.9403691      0.59455788
O       -1.1827260      2.35099721      2.69986773
H       -0.3732272      2.58290768      2.22759748
H       -1.6930799      1.79269350      2.09800529