66
 Ord_Energy   -239.1671294
O       -0.7315441      2.32077482      -1.4665961
H       -0.5960439      2.96918412      -0.7668561
H       0.04096479      1.73851650      -1.4405554
O       3.79724892      2.28788609      2.71063831
H       4.03094884      2.95944786      2.05583679
H       4.18408668      1.45250025      2.41520366
O       1.28282148      1.60473110      1.66981689
H       0.98289729      0.89690503      2.25399961
H       2.13047530      1.91046385      2.01574969
O       -2.9962310      0.94348784      -0.9285779
H       -3.6218862      0.98759553      -1.6463277
H       -2.2012961      1.42956806      -1.2144637
O       -2.7516163      2.24305632      1.55995661
H       -1.9931101      2.80718701      1.35808214
H       -3.0118524      1.83440093      0.72488071
O       1.43245911      0.62710384      -0.9277710
H       1.21926725      -0.3126835      -0.8841774
H       1.40864109      0.94531189      -0.0115366
O       -1.7959523      -1.2454192      0.45440147
H       -2.0052349      -1.0372358      1.37313241
H       -2.2446228      -0.5762395      -0.0773984
O       1.74481699      5.37483034      1.30523452
H       1.86732376      5.55376295      2.24611121
H       2.56118111      4.96418266      0.99514822
O       4.15366113      4.01300606      0.52017208
H       4.89037509      4.51173024      0.17600495
H       4.10608070      3.19248422      -0.0028761
O       0.66870519      -2.0243636      -0.3445026
H       0.58541311      -2.8288798      -0.8493766
H       -0.2284642      -1.7860458      -0.0489025
O       -0.5554564      4.22458054      3.87536111
H       -0.5340243      4.07756383      2.92151828
H       0.16751373      4.83550766      4.06382816
O       -2.1988032      -0.1074374      3.01513655
H       -2.4001172      0.08763621      3.93839852
H       -2.3659609      0.71269011      2.52790942
O       0.52964781      -0.3001704      3.52222572
H       -0.4077348      -0.3883580      3.30107893
H       0.56885634      0.38230722      4.20652529
O       4.63813172      -0.1268668      1.56115799
H       5.39369762      -0.6854895      1.72247256
H       3.84895273      -0.6873182      1.67106508
O       2.68634924      3.24451920      5.08653006
H       1.94814631      2.66510749      5.30929101
H       3.14216279      2.84008718      4.33448607
O       -3.1597323      3.20057675      4.20422716
H       -2.3497943      3.72861764      4.22159494
H       -3.2599184      2.92896868      3.28241128
O       -2.5230140      0.98007875      5.62750533
H       -2.8391320      1.79449154      5.19492458
H       -3.0998991      0.81883888      6.36903767
O       0.17715650      1.86172116      5.25240645
H       -0.0506991      2.65905995      4.75211318
H       -0.6630916      1.51344187      5.57459956
O       4.05289000      1.57967909      -0.6763561
H       4.34872480      0.94344427      -0.0132002
H       3.19020697      1.25965422      -0.9720551
O       -0.3583619      3.67247405      1.07932460
H       0.17242596      2.88386528      1.28260635
H       0.27750576      4.40269596      1.02748146
O       2.40138756      -1.6159917      1.88913760
H       1.79655332      -1.2946979      2.57117115
H       1.85004073      -1.8400349      1.12958951
O       1.85278602      5.65075143      4.16709130
H       2.21963657      4.82944014      4.54170477
H       2.13630651      6.36361491      4.73289575