72
 Ord_Energy   -264.3309958
O       0.66811994      0.55156447      3.12111502
H       -0.2316073      0.50610026      2.76321404
H       1.24129134      0.10798543      2.47918304
O       -2.0085219      -1.2562297      -3.4949316
H       -1.2839646      -0.8379214      -2.9994793
H       -1.8195944      -1.1258267      -4.4206290
O       -0.7917713      -0.2983560      5.37672482
H       -1.3081896      0.49672020      5.55225071
H       -0.1444011      -0.0519738      4.70238525
O       -4.0055379      -0.7507989      -1.5503553
H       -3.8466634      -1.5132727      -0.9725557
H       -3.4823653      -0.9015958      -2.3465726
O       -1.6131525      -3.6025893      -1.8217942
H       -1.7919841      -2.9568550      -2.5149050
H       -2.3607724      -3.5440951      -1.2119676
O       0.22454190      -2.4003378      -0.1294536
H       -0.2758915      -2.4768558      0.69504196
H       -0.2529531      -2.9508883      -0.7671828
O       -4.5523502      -1.7939628      3.98316990
H       -4.4305675      -0.8338029      3.97054103
H       -3.7234759      -2.1661559      4.30452898
O       1.27232557      3.19555410      3.16836219
H       2.08544037      3.36235252      3.63643015
H       1.11565624      2.23461840      3.20239925
O       -0.0974461      -0.2057422      -1.8041946
H       0.03094337      -0.9563612      -1.2043347
H       0.61984437      0.41925730      -1.6398032
O       -5.1381436      2.59310447      1.76012519
H       -5.3543391      1.78944098      1.25202617
H       -5.9278787      3.12771202      1.77205531
O       -4.0233524      0.92293350      3.73154264
H       -3.5619603      1.37536724      4.45000978
H       -4.4512439      1.58396850      3.17346171
O       -2.4960745      3.37928499      0.96908331
H       -2.3657477      2.64544143      0.34914276
H       -3.4205351      3.29947142      1.23434361
O       -2.3692193      2.10775188      5.62583088
H       -2.5089997      2.63581631      6.40691505
H       -2.0314161      2.70680951      4.93422992
O       0.39222486      3.42298792      0.49133128
H       -0.5536639      3.57874937      0.58273468
H       0.75365598      3.44060475      1.38749777
O       -2.2045613      1.08525695      -0.5197356
H       -1.4112445      0.74808182      -0.9541501
H       -2.9334013      0.54196506      -0.8467181
O       -1.8649920      0.21011251      2.08970086
H       -2.0139106      0.54656016      1.19749888
H       -2.6180081      0.45962210      2.63903110
O       -3.5713767      -2.9090310      0.15756763
H       -4.4058461      -2.8352597      0.63743371
H       -2.8722683      -2.8278509      0.82197053
O       2.06096307      -0.5413140      1.02802013
H       2.08288089      0.16081283      0.36697349
H       1.59014267      -1.2804883      0.62187008
O       -1.4718293      3.64219771      3.61555344
H       -0.5109288      3.61990473      3.52629139
H       -1.8291280      3.56541013      2.72179673
O       1.81551364      1.59632208      -0.9261567
H       1.29426494      2.26787521      -0.4515524
H       2.54299912      2.05500149      -1.3380160
O       -1.9574427      -2.6911957      4.80740110
H       -1.7253330      -3.3194152      5.48591937
H       -1.5342582      -1.8487280      5.05165140
O       -1.5339388      -2.4894111      2.02523395
H       -1.6615539      -1.5273061      2.03276000
H       -1.6057730      -2.7633647      2.94575576
O       -5.8573418      -2.2991775      1.68867623
H       -5.4076079      -2.1663094      2.54322172
H       -6.6544740      -2.7896169      1.86990792
O       -5.6875034      0.28280102      0.45181884
H       -5.2519021      0.02500119      -0.3703676
H       -5.8329707      -0.5427783      0.92996070