72
 Ord_Energy   -264.3943802
O       13.3053333      12.0244447      -8.7080531
H       13.9998982      12.6065884      -9.0670010
H       13.2855439      12.1670821      -7.7657452
O       11.1603288      10.8870263      -15.377830
H       11.1226734      11.7940316      -15.038877
H       11.4122464      10.9479827      -16.307545
O       13.9043464      9.59538174      -10.085451
H       13.7534088      10.3815713      -9.5461423
H       13.0768647      9.44250632      -10.558119
O       18.5672450      13.0679823      -13.186116
H       18.3645213      12.7207609      -14.074256
H       19.4952321      13.2854391      -13.178545
O       11.3936980      12.3601599      -10.753429
H       11.9223657      12.2783831      -9.9500681
H       11.8719479      12.9809417      -11.322077
O       11.5348552      9.71786677      -11.620161
H       10.7538591      9.55461957      -12.162483
H       11.4703001      10.6390545      -11.324690
O       13.2007401      9.74712369      -13.838299
H       12.6936736      9.65866114      -13.019667
H       12.5818465      10.0802711      -14.500438
O       14.8352438      15.7689263      -11.566814
H       14.8867368      16.7109464      -11.430013
H       15.4481508      15.5570821      -12.293442
O       9.45463489      9.72001929      -13.542504
H       10.0019731      10.0617008      -14.269781
H       8.81081067      9.13555389      -13.934297
O       15.2107936      13.4545832      -15.659354
H       15.0013114      12.9527332      -14.853907
H       14.3697275      13.7652873      -16.026429
O       14.7589392      11.0561179      -17.205792
H       14.9404993      11.8898558      -16.755831
H       15.4611488      10.4544490      -16.934269
O       10.9512560      13.4920307      -14.403669
H       10.1841751      13.2541118      -13.863507
H       11.6245130      13.7884405      -13.774422
O       12.8483092      14.0014821      -12.467428
H       13.3926418      14.7250843      -12.138941
H       13.4633711      13.3139288      -12.767342
O       12.6734279      13.9022378      -16.619028
H       12.0029135      13.9169046      -15.923168
H       12.4378636      13.1602935      -17.187510
O       14.5841217      12.0976702      -13.372906
H       14.1619717      11.2420940      -13.519775
H       15.2992089      11.9865467      -12.733581
O       17.7763522      12.2218710      -15.607892
H       17.5706290      11.3007915      -15.812178
H       16.9726648      12.7253539      -15.789524
O       12.1833697      11.3341188      -17.925833
H       12.0539928      11.1717215      -18.855863
H       13.1212515      11.1486517      -17.733681
O       16.3542916      9.13216931      -11.129315
H       15.4683199      9.26209001      -10.743240
H       16.7988497      8.49066619      -10.581600
O       15.7706265      8.69448224      -13.895548
H       16.0320012      8.77957195      -12.972085
H       14.8337864      8.93454527      -13.930845
O       16.9367151      9.57387824      -16.155576
H       17.4086391      8.85036883      -16.558663
H       16.5526279      9.23286701      -15.327759
O       16.6594686      11.8814988      -11.537874
H       17.4210643      12.1936029      -12.043762
H       16.7311439      10.9285424      -11.399999
O       9.16304734      12.4402188      -12.564130
H       9.76822012      12.4535432      -11.810767
H       9.08289893      11.5134177      -12.817838
O       16.4801173      15.0413871      -13.602546
H       17.2338571      14.4685499      -13.419279
H       16.0578645      14.6841388      -14.392847
O       15.2393680      13.5434780      -9.8066478
H       15.1123779      14.3550162      -10.310774
H       15.8025549      12.9747576      -10.350266