45
 Ord_Energy   -154.0836640
O       -3.3106334      7.71029186      2.67088509
H       -3.3676817      7.21515989      1.84457397
H       -4.1238865      7.51562166      3.15256596
O       -3.3332879      5.68317604      0.62087357
H       -3.4370768      5.19494200      -0.2024269
H       -2.5611782      5.29650879      1.06062376
O       -1.1501895      4.37736273      1.74730635
H       -1.0210465      3.77410007      1.00686896
H       -1.4865223      3.83838296      2.47927165
O       -2.3633580      0.90632033      1.76961362
H       -2.1303088      1.43703818      2.54360843
H       -1.9853463      1.36230099      1.00867140
O       -5.0651440      0.67278331      1.88967204
H       -5.3375988      -0.2385559      1.95153832
H       -4.0939297      0.67352349      1.81344092
O       -1.7484356      4.78932285      5.81334162
H       -1.1668914      4.92709255      6.55559206
H       -1.4912625      5.43487453      5.12922096
O       -2.1478145      2.82492208      3.83296490
H       -1.9023560      3.36274791      4.59558916
H       -3.1160900      2.83214879      3.80153418
O       -1.1032064      6.41145658      3.75887942
H       -1.8262513      6.97769547      3.45077372
H       -0.8884750      5.83498049      3.01621985
O       -5.6770405      6.83209991      4.06266022
H       -5.2948160      6.20067596      4.69823265
H       -6.3113575      7.35692930      4.54304457
O       -4.9266614      2.84014177      3.71304369
H       -5.1015358      2.02414083      3.23027444
H       -5.1808867      3.56385469      3.12088037
O       -5.6528630      2.82507706      0.12018958
H       -5.8545503      3.54293156      0.73545688
H       -5.5320434      2.03391504      0.65977788
O       -4.5959739      4.90251541      5.64160633
H       -4.7918329      4.08368635      5.16817045
H       -3.6428906      4.90045834      5.79567337
O       -1.3577004      2.51414251      -0.3975473
H       -0.7612052      2.25339532      -1.0953521
H       -2.1387467      2.90089965      -0.8247728
O       -5.6216440      4.92278910      2.00476217
H       -5.8198843      5.61319256      2.64932823
H       -4.8226881      5.21103859      1.53865874
O       -3.6460719      3.69686294      -1.4523195
H       -3.9816863      3.86199594      -2.3293435
H       -4.3877630      3.33779430      -0.9309362