66
 Ord_Energy   -239.0994677
O       -3.4741509      1.17971424      0.59126656
H       -4.0994083      1.78039415      0.19557181
H       -3.8661707      0.28827437      0.54244017
O       -2.4467797      0.17478651      6.02220393
H       -2.6554810      0.49455605      5.13413459
H       -1.5262839      -0.1167883      5.98066092
O       -0.1086074      -0.2628130      2.79402054
H       -0.0163922      -0.4748000      3.73423580
H       -0.3530305      -1.0927419      2.34876098
O       -2.7714794      0.53562404      3.23824249
H       -1.8401368      0.32609016      3.08490170
H       -3.0946668      0.91879271      2.41409424
O       2.59341579      -2.2311629      5.33107758
H       2.67973648      -1.9676980      4.39691287
H       3.43583008      -2.0657525      5.74498608
O       -3.9005047      -2.1045557      6.30700455
H       -3.4342159      -1.2489966      6.29756710
H       -4.4922467      -2.0878448      7.05420132
O       0.00189973      -1.1330650      5.43266295
H       -0.5238760      -1.9463331      5.45614265
H       0.91943157      -1.4036558      5.55782151
O       1.03045248      -4.5983685      4.99018497
H       1.62307597      -3.8545120      5.15415180
H       0.16690614      -4.3345517      5.33078293
O       -4.1839932      -1.9114313      3.45470222
H       -3.6945097      -1.0803905      3.36720376
H       -4.2908744      -2.0454191      4.40402733
O       -0.7239639      0.60545523      0.10235435
H       -0.3731018      0.48317535      0.99127639
H       -1.6447411      0.87670179      0.21336616
O       1.29474707      -5.9674943      2.67171630
H       1.19383953      -5.5055260      3.52356168
H       1.82773247      -6.7399457      2.84155186
O       -1.4546193      -5.3439388      -1.1286678
H       -1.7641846      -6.0815996      -1.6469460
H       -1.3972951      -5.6529739      -0.2063098
O       -1.2847661      -6.0715353      1.46576219
H       -0.4140034      -6.1208562      1.87896590
H       -1.8276320      -5.5271833      2.05160169
O       2.57579596      -1.4805881      2.73041265
H       2.43691705      -2.2294022      2.13189948
H       1.82031992      -0.8968279      2.60910376
O       -0.6899918      -2.5834138      1.54522841
H       -1.2248454      -2.5989819      0.74171817
H       0.16405796      -2.9967800      1.36184728
O       -2.4463400      -4.0510257      3.02399012
H       -3.1744877      -3.4238631      3.12284159
H       -1.7610892      -3.5703849      2.53272368
O       1.84548018      -3.6586632      1.15435015
H       1.74836970      -4.5154596      1.58825299
H       1.67342050      -3.7654598      0.20634569
O       0.92071266      -3.7537549      -1.4085207
H       0.57917620      -2.8781588      -1.6277278
H       0.16091089      -4.3496705      -1.4113032
O       -0.3581605      -1.1990810      -1.9017065
H       -0.2125012      -0.7221155      -2.7146905
H       -0.4139723      -0.5313133      -1.1953387
O       -2.3629010      -2.7378971      -0.7058804
H       -2.1786886      -3.6633654      -0.9153816
H       -1.7864561      -2.1969744      -1.2629099
O       -1.5204467      -3.4885058      5.56448110
H       -2.3143109      -3.1453017      5.99086405
H       -1.8078122      -3.7858511      4.68807987
O       -4.4070413      -1.3531321      0.63131645
H       -3.7796332      -1.9228468      0.16479756
H       -4.4943896      -1.6960762      1.52809586