15
 Ord_Energy   -36.8034706
O       -3.9399578      -6.0247364      -4.1968617
H       -4.4153204      -5.3833952      -3.6429352
H       -3.2947697      -6.4337000      -3.6257224
O       -5.7198705      -6.9207553      -6.0910282
H       -5.3929338      -6.6248560      -6.9368143
H       -5.0595712      -6.6341838      -5.4383664
O       -5.3923692      -4.2704563      -2.6562185
H       -5.4381856      -3.3193831      -2.6000745
H       -6.3129844      -4.5812020      -2.6427905
O       -8.1788034      -6.9201893      -4.8575172
H       -7.3254971      -6.9335408      -5.3220143
H       -8.6426401      -7.7017498      -5.1457715
O       -7.9811186      -5.1907563      -2.7260711
H       -8.7119321      -5.3629269      -2.1384596
H       -8.0937500      -5.7962427      -3.4774994