27
 Ord_Energy   -83.4160843
O       26.0310078      -4.2936573      2.65471506
H       26.2728138      -4.9697880      2.02796435
H       25.1070385      -4.4651250      2.91108632
O       21.9454365      -2.2748596      3.47015262
H       21.0069790      -2.1745224      3.33494639
H       22.3863163      -1.7317243      2.79328251
O       26.0047665      -0.9905871      5.28807783
H       26.2351322      -0.2266597      5.80940914
H       25.0811882      -1.2112869      5.50519896
O       23.4782257      -1.8426618      5.83949709
H       23.6177425      -2.7497210      6.14107227
H       22.8987312      -1.9088109      5.07005072
O       23.3252964      -0.8154389      1.65332735
H       23.3667622      -0.2219442      0.90931028
H       24.2475090      -1.0048253      1.90006721
O       23.5006561      -4.6659445      3.58864331
H       23.6336861      -4.7565317      4.54114819
H       22.9146023      -3.9067611      3.47719097
O       25.8296680      -1.4613425      2.48844957
H       25.9620705      -1.2106092      3.41152620
H       25.9716434      -2.4157471      2.45073366
O       26.6388149      -3.7687487      5.39072990
H       26.5878563      -2.8041505      5.41492462
H       26.5974159      -4.0076870      4.45540857
O       24.2124271      -4.5538778      6.35135174
H       24.2705631      -5.1465258      7.09529972
H       25.1261787      -4.3386845      6.09053707